/*--------------------------------*- C++ -*----------------------------------*\
  =========                 |
  \\      /  F ield         | OpenFOAM: The Open Source CFD Toolbox
   \\    /   O peration     | Website:  https://openfoam.org
    \\  /    A nd           | Version:  8
     \\/     M anipulation  |
\*---------------------------------------------------------------------------*/
FoamFile
{
    version     2.0;
    format      ascii;
    class       volScalarField;
    location    "0";
    object      k;
}
// * * * * * * * * * * * * * * * * * * * * * * * * * * * * * * * * * * * * * //

dimensions      [0 2 -2 0 0 0 0];

internalField   uniform 0.00375; // (3/2)*(U*0.05)^2

boundaryField
{
    "(inlet|outlet)"
    {
        type            inletOutlet;
        inletValue      $internalField;
        value           $internalField;
    }
    wall
    {
        type            kLowReWallFunction;    //kqRWallFunction;
        value           uniform 0;
    }


    #includeEtc "caseDicts/setConstraintTypes"
}


// ************************************************************************* //
